<?xml version="1.0"?>
<VTKFile type="UnstructuredGrid"  version="0.1"  >
<UnstructuredGrid>
<Piece  NumberOfPoints="4913" NumberOfCells="24576">
<Points>
<DataArray  type="Float64"  NumberOfComponents="3"  format="ascii">0 0 0  0.0625 0 0  0.125 0 0  0.1875 0 0  0.25 0 0  0.3125 0 0  0.375 0 0  0.4375 0 0  0.5 0 0  0.5625 0 0  0.625 0 0  0.6875 0 0  0.75 0 0  0.8125 0 0  0.875 0 0  0.9375 0 0  1 0 0  0 0.0625 0  0.0625 0.0625 0  0.125 0.0625 0  0.1875 0.0625 0  0.25 0.0625 0  0.3125 0.0625 0  0.375 0.0625 0  0.4375 0.0625 0  0.5 0.0625 0  0.5625 0.0625 0  0.625 0.0625 0  0.6875 0.0625 0  0.75 0.0625 0  0.8125 0.0625 0  0.875 0.0625 0  0.9375 0.0625 0  1 0.0625 0  0 0.125 0  0.0625 0.125 0  0.125 0.125 0  0.1875 0.125 0  0.25 0.125 0  0.3125 0.125 0  0.375 0.125 0  0.4375 0.125 0  0.5 0.125 0  0.5625 0.125 0  0.625 0.125 0  0.6875 0.125 0  0.75 0.125 0  0.8125 0.125 0  0.875 0.125 0  0.9375 0.125 0  1 0.125 0  0 0.1875 0  0.0625 0.1875 0  0.125 0.1875 0  0.1875 0.1875 0  0.25 0.1875 0  0.3125 0.1875 0  0.375 0.1875 0  0.4375 0.1875 0  0.5 0.1875 0  0.5625 0.1875 0  0.625 0.1875 0  0.6875 0.1875 0  0.75 0.1875 0  0.8125 0.1875 0  0.875 0.1875 0  0.9375 0.1875 0  1 0.1875 0  0 0.25 0  0.0625 0.25 0  0.125 0.25 0  0.1875 0.25 0  0.25 0.25 0  0.3125 0.25 0  0.375 0.25 0  0.4375 0.25 0  0.5 0.25 0  0.5625 0.25 0  0.625 0.25 0  0.6875 0.25 0  0.75 0.25 0  0.8125 0.25 0  0.875 0.25 0  0.9375 0.25 0  1 0.25 0  0 0.3125 0  0.0625 0.3125 0  0.125 0.3125 0  0.1875 0.3125 0  0.25 0.3125 0  0.3125 0.3125 0  0.375 0.3125 0  0.4375 0.3125 0  0.5 0.3125 0  0.5625 0.3125 0  0.625 0.3125 0  0.6875 0.3125 0  0.75 0.3125 0  0.8125 0.3125 0  0.875 0.3125 0  0.9375 0.3125 0  1 0.3125 0  0 0.375 0  0.0625 0.375 0  0.125 0.375 0  0.1875 0.375 0  0.25 0.375 0  0.3125 0.375 0  0.375 0.375 0  0.4375 0.375 0  0.5 0.375 0  0.5625 0.375 0  0.625 0.375 0  0.6875 0.375 0  0.75 0.375 0  0.8125 0.375 0  0.875 0.375 0  0.9375 0.375 0  1 0.375 0  0 0.4375 0  0.0625 0.4375 0  0.125 0.4375 0  0.1875 0.4375 0  0.25 0.4375 0  0.3125 0.4375 0  0.375 0.4375 0  0.4375 0.4375 0  0.5 0.4375 0  0.5625 0.4375 0  0.625 0.4375 0  0.6875 0.4375 0  0.75 0.4375 0  0.8125 0.4375 0  0.875 0.4375 0  0.9375 0.4375 0  1 0.4375 0  0 0.5 0  0.0625 0.5 0  0.125 0.5 0  0.1875 0.5 0  0.25 0.5 0  0.3125 0.5 0  0.375 0.5 0  0.4375 0.5 0  0.5 0.5 0  0.5625 0.5 0  0.625 0.5 0  0.6875 0.5 0  0.75 0.5 0  0.8125 0.5 0  0.875 0.5 0  0.9375 0.5 0  1 0.5 0  0 0.5625 0  0.0625 0.5625 0  0.125 0.5625 0  0.1875 0.5625 0  0.25 0.5625 0  0.3125 0.5625 0  0.375 0.5625 0  0.4375 0.5625 0  0.5 0.5625 0  0.5625 0.5625 0  0.625 0.5625 0  0.6875 0.5625 0  0.75 0.5625 0  0.8125 0.5625 0  0.875 0.5625 0  0.9375 0.5625 0  1 0.5625 0  0 0.625 0  0.0625 0.625 0  0.125 0.625 0  0.1875 0.625 0  0.25 0.625 0  0.3125 0.625 0  0.375 0.625 0  0.4375 0.625 0  0.5 0.625 0  0.5625 0.625 0  0.625 0.625 0  0.6875 0.625 0  0.75 0.625 0  0.8125 0.625 0  0.875 0.625 0  0.9375 0.625 0  1 0.625 0  0 0.6875 0  0.0625 0.6875 0  0.125 0.6875 0  0.1875 0.6875 0  0.25 0.6875 0  0.3125 0.6875 0  0.375 0.6875 0  0.4375 0.6875 0  0.5 0.6875 0  0.5625 0.6875 0  0.625 0.6875 0  0.6875 0.6875 0  0.75 0.6875 0  0.8125 0.6875 0  0.875 0.6875 0  0.9375 0.6875 0  1 0.6875 0  0 0.75 0  0.0625 0.75 0  0.125 0.75 0  0.1875 0.75 0  0.25 0.75 0  0.3125 0.75 0  0.375 0.75 0  0.4375 0.75 0  0.5 0.75 0  0.5625 0.75 0  0.625 0.75 0  0.6875 0.75 0  0.75 0.75 0  0.8125 0.75 0  0.875 0.75 0  0.9375 0.75 0  1 0.75 0  0 0.8125 0  0.0625 0.8125 0  0.125 0.8125 0  0.1875 0.8125 0  0.25 0.8125 0  0.3125 0.8125 0  0.375 0.8125 0  0.4375 0.8125 0  0.5 0.8125 0  0.5625 0.8125 0  0.625 0.8125 0  0.6875 0.8125 0  0.75 0.8125 0  0.8125 0.8125 0  0.875 0.8125 0  0.9375 0.8125 0  1 0.8125 0  0 0.875 0  0.0625 0.875 0  0.125 0.875 0  0.1875 0.875 0  0.25 0.875 0  0.3125 0.875 0  0.375 0.875 0  0.4375 0.875 0  0.5 0.875 0  0.5625 0.875 0  0.625 0.875 0  0.6875 0.875 0  0.75 0.875 0  0.8125 0.875 0  0.875 0.875 0  0.9375 0.875 0  1 0.875 0  0 0.9375 0  0.0625 0.9375 0  0.125 0.9375 0  0.1875 0.9375 0  0.25 0.9375 0  0.3125 0.9375 0  0.375 0.9375 0  0.4375 0.9375 0  0.5 0.9375 0  0.5625 0.9375 0  0.625 0.9375 0  0.6875 0.9375 0  0.75 0.9375 0  0.8125 0.9375 0  0.875 0.9375 0  0.9375 0.9375 0  1 0.9375 0  0 1 0  0.0625 1 0  0.125 1 0  0.1875 1 0  0.25 1 0  0.3125 1 0  0.375 1 0  0.4375 1 0  0.5 1 0  0.5625 1 0  0.625 1 0  0.6875 1 0  0.75 1 0  0.8125 1 0  0.875 1 0  0.9375 1 0  1 1 0  0 0 0.0625  0.0625 0 0.0625  0.125 0 0.0625  0.1875 0 0.0625  0.25 0 0.0625  0.3125 0 0.0625  0.375 0 0.0625  0.4375 0 0.0625  0.5 0 0.0625  0.5625 0 0.0625  0.625 0 0.0625  0.6875 0 0.0625  0.75 0 0.0625  0.8125 0 0.0625  0.875 0 0.0625  0.9375 0 0.0625  1 0 0.0625  0 0.0625 0.0625  0.0625 0.0625 0.0625  0.125 0.0625 0.0625  0.1875 0.0625 0.0625  0.25 0.0625 0.0625  0.3125 0.0625 0.0625  0.375 0.0625 0.0625  0.4375 0.0625 0.0625  0.5 0.0625 0.0625  0.5625 0.0625 0.0625  0.625 0.0625 0.0625  0.6875 0.0625 0.0625  0.75 0.0625 0.0625  0.8125 0.0625 0.0625  0.875 0.0625 0.0625  0.9375 0.0625 0.0625  1 0.0625 0.0625  0 0.125 0.0625  0.0625 0.125 0.0625  0.125 0.125 0.0625  0.1875 0.125 0.0625  0.25 0.125 0.0625  0.3125 0.125 0.0625  0.375 0.125 0.0625  0.4375 0.125 0.0625  0.5 0.125 0.0625  0.5625 0.125 0.0625  0.625 0.125 0.0625  0.6875 0.125 0.0625  0.75 0.125 0.0625  0.8125 0.125 0.0625  0.875 0.125 0.0625  0.9375 0.125 0.0625  1 0.125 0.0625  0 0.1875 0.0625  0.0625 0.1875 0.0625  0.125 0.1875 0.0625  0.1875 0.1875 0.0625  0.25 0.1875 0.0625  0.3125 0.1875 0.0625  0.375 0.1875 0.0625  0.4375 0.1875 0.0625  0.5 0.1875 0.0625  0.5625 0.1875 0.0625  0.625 0.1875 0.0625  0.6875 0.1875 0.0625  0.75 0.1875 0.0625  0.8125 0.1875 0.0625  0.875 0.1875 0.0625  0.9375 0.1875 0.0625  1 0.1875 0.0625  0 0.25 0.0625  0.0625 0.25 0.0625  0.125 0.25 0.0625  0.1875 0.25 0.0625  0.25 0.25 0.0625  0.3125 0.25 0.0625  0.375 0.25 0.0625  0.4375 0.25 0.0625  0.5 0.25 0.0625  0.5625 0.25 0.0625  0.625 0.25 0.0625  0.6875 0.25 0.0625  0.75 0.25 0.0625  0.8125 0.25 0.0625  0.875 0.25 0.0625  0.9375 0.25 0.0625  1 0.25 0.0625  0 0.3125 0.0625  0.0625 0.3125 0.0625  0.125 0.3125 0.0625  0.1875 0.3125 0.0625  0.25 0.3125 0.0625  0.3125 0.3125 0.0625  0.375 0.3125 0.0625  0.4375 0.3125 0.0625  0.5 0.3125 0.0625  0.5625 0.3125 0.0625  0.625 0.3125 0.0625  0.6875 0.3125 0.0625  0.75 0.3125 0.0625  0.8125 0.3125 0.0625  0.875 0.3125 0.0625  0.9375 0.3125 0.0625  1 0.3125 0.0625  0 0.375 0.0625  0.0625 0.375 0.0625  0.125 0.375 0.0625  0.1875 0.375 0.0625  0.25 0.375 0.0625  0.3125 0.375 0.0625  0.375 0.375 0.0625  0.4375 0.375 0.0625  0.5 0.375 0.0625  0.5625 0.375 0.0625  0.625 0.375 0.0625  0.6875 0.375 0.0625  0.75 0.375 0.0625  0.8125 0.375 0.0625  0.875 0.375 0.0625  0.9375 0.375 0.0625  1 0.375 0.0625  0 0.4375 0.0625  0.0625 0.4375 0.0625  0.125 0.4375 0.0625  0.1875 0.4375 0.0625  0.25 0.4375 0.0625  0.3125 0.4375 0.0625  0.375 0.4375 0.0625  0.4375 0.4375 0.0625  0.5 0.4375 0.0625  0.5625 0.4375 0.0625  0.625 0.4375 0.0625  0.6875 0.4375 0.0625  0.75 0.4375 0.0625  0.8125 0.4375 0.0625  0.875 0.4375 0.0625  0.9375 0.4375 0.0625  1 0.4375 0.0625  0 0.5 0.0625  0.0625 0.5 0.0625  0.125 0.5 0.0625  0.1875 0.5 0.0625  0.25 0.5 0.0625  0.3125 0.5 0.0625  0.375 0.5 0.0625  0.4375 0.5 0.0625  0.5 0.5 0.0625  0.5625 0.5 0.0625  0.625 0.5 0.0625  0.6875 0.5 0.0625  0.75 0.5 0.0625  0.8125 0.5 0.0625  0.875 0.5 0.0625  0.9375 0.5 0.0625  1 0.5 0.0625  0 0.5625 0.0625  0.0625 0.5625 0.0625  0.125 0.5625 0.0625  0.1875 0.5625 0.0625  0.25 0.5625 0.0625  0.3125 0.5625 0.0625  0.375 0.5625 0.0625  0.4375 0.5625 0.0625  0.5 0.5625 0.0625  0.5625 0.5625 0.0625  0.625 0.5625 0.0625  0.6875 0.5625 0.0625  0.75 0.5625 0.0625  0.8125 0.5625 0.0625  0.875 0.5625 0.0625  0.9375 0.5625 0.0625  1 0.5625 0.0625  0 0.625 0.0625  0.0625 0.625 0.0625  0.125 0.625 0.0625  0.1875 0.625 0.0625  0.25 0.625 0.0625  0.3125 0.625 0.0625  0.375 0.625 0.0625  0.4375 0.625 0.0625  0.5 0.625 0.0625  0.5625 0.625 0.0625  0.625 0.625 0.0625  0.6875 0.625 0.0625  0.75 0.625 0.0625  0.8125 0.625 0.0625  0.875 0.625 0.0625  0.9375 0.625 0.0625  1 0.625 0.0625  0 0.6875 0.0625  0.0625 0.6875 0.0625  0.125 0.6875 0.0625  0.1875 0.6875 0.0625  0.25 0.6875 0.0625  0.3125 0.6875 0.0625  0.375 0.6875 0.0625  0.4375 0.6875 0.0625  0.5 0.6875 0.0625  0.5625 0.6875 0.0625  0.625 0.6875 0.0625  0.6875 0.6875 0.0625  0.75 0.6875 0.0625  0.8125 0.6875 0.0625  0.875 0.6875 0.0625  0.9375 0.6875 0.0625  1 0.6875 0.0625  0 0.75 0.0625  0.0625 0.75 0.0625  0.125 0.75 0.0625  0.1875 0.75 0.0625  0.25 0.75 0.0625  0.3125 0.75 0.0625  0.375 0.75 0.0625  0.4375 0.75 0.0625  0.5 0.75 0.0625  0.5625 0.75 0.0625  0.625 0.75 0.0625  0.6875 0.75 0.0625  0.75 0.75 0.0625  0.8125 0.75 0.0625  0.875 0.75 0.0625  0.9375 0.75 0.0625  1 0.75 0.0625  0 0.8125 0.0625  0.0625 0.8125 0.0625  0.125 0.8125 0.0625  0.1875 0.8125 0.0625  0.25 0.8125 0.0625  0.3125 0.8125 0.0625  0.375 0.8125 0.0625  0.4375 0.8125 0.0625  0.5 0.8125 0.0625  0.5625 0.8125 0.0625  0.625 0.8125 0.0625  0.6875 0.8125 0.0625  0.75 0.8125 0.0625  0.8125 0.8125 0.0625  0.875 0.8125 0.0625  0.9375 0.8125 0.0625  1 0.8125 0.0625  0 0.875 0.0625  0.0625 0.875 0.0625  0.125 0.875 0.0625  0.1875 0.875 0.0625  0.25 0.875 0.0625  0.3125 0.875 0.0625  0.375 0.875 0.0625  0.4375 0.875 0.0625  0.5 0.875 0.0625  0.5625 0.875 0.0625  0.625 0.875 0.0625  0.6875 0.875 0.0625  0.75 0.875 0.0625  0.8125 0.875 0.0625  0.875 0.875 0.0625  0.9375 0.875 0.0625  1 0.875 0.0625  0 0.9375 0.0625  0.0625 0.9375 0.0625  0.125 0.9375 0.0625  0.1875 0.9375 0.0625  0.25 0.9375 0.0625  0.3125 0.9375 0.0625  0.375 0.9375 0.0625  0.4375 0.9375 0.0625  0.5 0.9375 0.0625  0.5625 0.9375 0.0625  0.625 0.9375 0.0625  0.6875 0.9375 0.0625  0.75 0.9375 0.0625  0.8125 0.9375 0.0625  0.875 0.9375 0.0625  0.9375 0.9375 0.0625  1 0.9375 0.0625  0 1 0.0625  0.0625 1 0.0625  0.125 1 0.0625  0.1875 1 0.0625  0.25 1 0.0625  0.3125 1 0.0625  0.375 1 0.0625  0.4375 1 0.0625  0.5 1 0.0625  0.5625 1 0.0625  0.625 1 0.0625  0.6875 1 0.0625  0.75 1 0.0625
[...]
<PointData  Vectors="f_114154"> 
<DataArray  type="Float64"  Name="f_114154"  NumberOfComponents="3" format="ascii">0.0000000000000000e+00 0.0000000000000000e+00 0.0000000000000000e+00  1.6151166684605225e-02 0.0000000000000000e+00 0.0000000000000000e+00  4.3495951335279295e-02 0.0000000000000000e+00 0.0000000000000000e+00  7.8642235564361992e-02 0.0000000000000000e+00 0.0000000000000000e+00  1.1921568962646713e-01 0.0000000000000000e+00 0.0000000000000000e+00  1.6366755434562955e-01 0.0000000000000000e+00 0.0000000000000000e+00  2.1099344510243911e-01 0.0000000000000000e+00 0.0000000000000000e+00  2.6053832933382970e-01 0.0000000000000000e+00 0.0000000000000000e+00  3.1187644265165548e-01 0.0000000000000000e+00 0.0000000000000000e+00  3.6473761432827284e-01 0.0000000000000000e+00 0.0000000000000000e+00  4.1895940827409450e-01 0.0000000000000000e+00 0.0000000000000000e+00  4.7445206859399719e-01 0.0000000000000000e+00 0.0000000000000000e+00  5.3116642581904172e-01 0.0000000000000000e+00 0.0000000000000000e+00  5.8905190157900311e-01 0.0000000000000000e+00 0.0000000000000000e+00  6.4797470477544017e-01 0.0000000000000000e+00 0.0000000000000000e+00  7.0749796234968987e-01 0.0000000000000000e+00 0.0000000000000000e+00  7.6610267767120022e-01 0.0000000000000000e+00 0.0000000000000000e+00  0.0000000000000000e+00 5.7827077434830197e-02 0.0000000000000000e+00  1.0411006010961016e-02 5.9154156809196237e-02 0.0000000000000000e+00  3.8146469302956065e-02 5.7252700017595165e-02 0.0000000000000000e+00  7.4314711286068355e-02 5.5121721208313219e-02 0.0000000000000000e+00  1.1562696718810526e-01 5.3406936479478008e-02 0.0000000000000000e+00  1.6050611761401623e-01 5.2219057952715031e-02 0.0000000000000000e+00  2.0803689949686233e-01 5.1538778060661643e-02 0.0000000000000000e+00  2.5763340793017248e-01 5.1322914862704468e-02 0.0000000000000000e+00  3.0890842359438958e-01 5.1535882925410531e-02 0.0000000000000000e+00  3.6160771073112274e-01 5.2161384859073255e-02 0.0000000000000000e+00  4.1556840907235759e-01 5.3210661821989844e-02 0.0000000000000000e+00  4.7068643503615487e-01 5.4734036841142010e-02 0.0000000000000000e+00  5.2688435782267640e-01 5.6841892517923945e-02 0.0000000000000000e+00  5.8407073269067777e-01 5.9746997329265160e-02 0.0000000000000000e+00  6.4207640073540018e-01 6.3860975013886503e-02 0.0000000000000000e+00  7.0054432288864954e-01 7.0063706963234468e-02 0.0000000000000000e+00  7.5877862240535621e-01 8.0731514690513845e-02 0.0000000000000000e+00  0.0000000000000000e+00 8.8959580530060561e-02 0.0000000000000000e+00  8.2191503456799132e-03 9.2385278142511018e-02 0.0000000000000000e+00  3.4161742334440054e-02 9.4573677310914483e-02 0.0000000000000000e+00  6.9463331506329482e-02 9.4980999207911102e-02 0.0000000000000000e+00  1.1036725580190580e-01 9.4767607564070530e-02 0.0000000000000000e+00  1.5497975770407338e-01 9.4618351585196325e-02 0.0000000000000000e+00  2.0223623547932454e-01 9.4847182046675568e-02 0.0000000000000000e+00  2.5148516676409211e-01 9.5588485403327983e-02 0.0000000000000000e+00  3.0230585404934357e-01 9.6905731849439417e-02 0.0000000000000000e+00  3.5441819927593204e-01 9.8849540815343348e-02 0.0000000000000000e+00  4.0762958791098070e-01 1.0149452246613248e-01 0.0000000000000000e+00  4.6179595411393626e-01 1.0497254490244796e-01 0.0000000000000000e+00  5.1678543321558612e-01 1.0951643957074181e-01 0.0000000000000000e+00  5.7243604728110742e-01 1.1553358703251287e-01 0.0000000000000000e+00  6.2849895826931645e-01 1.2375114839024783e-01 0.0000000000000000e+00  6.8456464233877801e-01 1.3554980091620097e-01 0.0000000000000000e+00  7.4002722488319495e-01 1.5387580211368693e-01 0.0000000000000000e+00  0.0000000000000000e+00 1.1411467340805796e-01 0.0000000000000000e+00  8.9250376292224765e-03 1.1755871622772664e-01 0.0000000000000000e+00  3.2361209277494217e-02 1.2146909307052953e-01 0.0000000000000000e+00  6.5534497439916531e-02 1.2448720898635483e-01 0.0000000000000000e+00  1.0490647299398995e-01 1.2675094536874359e-01 0.0000000000000000e+00  1.4836161347710217e-01 1.2876671544639992e-01 0.0000000000000000e+00  1.9463637633359876e-01 1.3093513516708410e-01 0.0000000000000000e+00  2.4294593187761598e-01 1.3351180338344534e-01 0.0000000000000000e+00  2.9278119413571380e-01 1.3666316558018798e-01 0.0000000000000000e+00  3.4379682501035502e-01 1.4052485560809752e-01 0.0000000000000000e+00  3.9574346538068778e-01 1.4525098921230098e-01 0.0000000000000000e+00  4.4842029839077019e-01 1.5106164499075236e-01 0.0000000000000000e+00  5.0163559997962670e-01 1.5830078446538948e-01 0.0000000000000000e+00  5.5516881165087117e-01 1.6752296784037987e-01 0.0000000000000000e+00  6.0873321548593640e-01 1.7964276258149917e-01 0.0000000000000000e+00  6.6195328628379013e-01 1.9622367300170476e-01 0.0000000000000000e+00  7.1442896560636315e-01 2.2011134461773499e-01 0.0000000000000000e+00  0.0000000000000000e+00 1.3472910476065988e-01 0.0000000000000000e+00  1.0011253955143979e-02 1.3788911001428533e-01 0.0000000000000000e+00  3.1757125515880391e-02 1.4260987942633815e-01 0.0000000000000000e+00  6.2562782149816351e-02 1.4749052135121155e-01 0.0000000000000000e+00  9.9754742471031124e-02 1.5211611674904993e-01 0.0000000000000000e+00  1.4133833592860442e-01 1.5659576721211588e-01 0.0000000000000000e+00  1.8596419172728537e-01 1.6118300313943645e-01 0.0000000000000000e+00  2.3273474662873989e-01 1.6611770918860227e-01 0.0000000000000000e+00  2.8104333780659063e-01 1.7160169331706610e-01 0.0000000000000000e+00  3.3046480736179784e-01 1.7782375585157006e-01 0.0000000000000000e+00  3.8068230343011089e-01 1.8499963393242416e-01 0.0000000000000000e+00  4.3143570987235036e-01 1.9341934691531285e-01 0.0000000000000000e+00  4.8248282051546387e-01 2.0350638521707573e-01 0.0000000000000000e+00  5.3356988834228325e-01 2.1590032291833561e-01 0.0000000000000000e+00  5.8441505766146440e-01 2.3158354271190168e-01 0.0000000000000000e+00  6.3472198172501515e-01 2.5209338248481422e-01 0.0000000000000000e+00  6.8427974879622300e-01 2.7992782814073280e-01 0.0000000000000000e+00  0.0000000000000000e+00 1.5194045326188430e-01 0.0000000000000000e+00  1.0875022412407873e-02 1.5487980346372113e-01 0.0000000000000000e+00  3.1423851805807992e-02 1.6008041830476172e-01 0.0000000000000000e+00  6.0053449552483679e-02 1.6632027288436399e-01 0.0000000000000000e+00  9.4851947337574419e-02 1.7296735477162292e-01 0.0000000000000000e+00  1.3413710942989562e-01 1.7983420064874020e-01 0.0000000000000000e+00  1.7661664784300912e-01 1.8696571802662895e-01 0.0000000000000000e+00  2.2135182811722945e-01 1.9449693479594443e-01 0.0000000000000000e+00  2.6766856205152856e-01 2.0259454955529038e-01 0.0000000000000000e+00  3.1507380578053751e-01 2.1145175870439023e-01 0.0000000000000000e+00  3.6319002761022484e-01 2.2131011097740327e-01 0.0000000000000000e+00  4.1170657065927002e-01 2.3249627772765982e-01 0.0000000000000000e+00  4.6034512648014692e-01 2.4547183168952139e-01 0.0000000000000000e+00  5.0883912714154056e-01 2.6090031329634283e-01 0.0000000000000000e+00  5.5693179942225945e-01 2.7974084575832714e-01 0.0000000000000000e+00  6.0440641640924597e-01 3.0338776625935687e-01 0.0000000000000000e+00  6.5118541357807247e-01 3.3392236262627839e-01 0.0000000000000000e+00  0.0000000000000000e+00 1.6655205586473032e-01 0.0000000000000000e+00  1.1370684210168168e-02 1.6938511738995923e-01 0.0000000000000000e+00  3.0897466445265837e-02 1.7498007254926490e-01 0.0000000000000000e+00  5.7548675137751457e-02 1.8232582464824598e-01 0.0000000000000000e+00  8.9944966793519529e-02 1.9072899567506829e-01 0.0000000000000000e+00  1.2672961237998698e-01 1.9982022527041793e-01 0.0000000000000000e+00  1.6674953193695263e-01 2.0946081882025985e-01 0.0000000000000000e+00  2.0909515472730289e-01 2.1965230354836129e-01 0.0000000000000000e+00  2.5307065953438340e-01 2.3048236817076961e-01 0.0000000000000000e+00  2.9814309072634720e-01 2.4210650237737003e-01 0.0000000000000000e+00  3.4389291829946533e-01 2.5475454739838554e-01 0.0000000000000000e+00  3.8997409648131370e-01 2.6875343026818310e-01 0.0000000000000000e+00  4.3608638036793701e-01 2.8456202962628080e-01 0.0000000000000000e+00  4.8196228168921523e-01 3.0281767092930956e-01 0.0000000000000000e+00  5.2737315713629351e-01 3.2439619155915789e-01 0.0000000000000000e+00  5.7216318923393628e-01 3.5049384610221523e-01 0.0000000000000000e+00  6.1633457296700644e-01 3.8277843952060020e-01 0.0000000000000000e+00  0.0000000000000000e+00 1.7911410069407768e-01 0.0000000000000000e+00  1.1473899514963590e-02 1.8194537666922059e-01 0.0000000000000000e+00  2.9964798442906455e-02 1.8795823964729944e-01 0.0000000000000000e+00  5.4741258358018359e-02 1.9632154443608199e-01 0.0000000000000000e+00  8.4774550222927070e-02 2.0633761150484148e-01 0.0000000000000000e+00  1.1898033745187665e-01 2.1752504818829455e-01 0.0000000000000000e+00  1.5636799657863043e-01 2.2959977455668099e-01 0.0000000000000000e+00  1.9610220759657987e-01 2.4243242276546392e-01 0.0000000000000000e+00  2.3750664566030619e-01 2.5601290866652693e-01 0.0000000000000000e+00  2.8003978556941600e-01 2.7043172867418591e-01 0.0000000000000000e+00  3.2326294364387609e-01 2.8587735879997872e-01 0.0000000000000000e+00  3.6681152444579501e-01 3.0264612146817765e-01 0.0000000000000000e+00  4.1037522770083151e-01 3.2116119127028353e-01 0.0000000000000000e+00  4.5369105025869744e-01 3.4199828360649870e-01 0.0000000000000000e+00  4.9655288082226340e-01 3.6591636637972463e-01 0.0000000000000000e+00  5.3884284584982223e-01 3.9389653823073384e-01 0.0000000000000000e+00  5.8059998187237594e-01 4.2722554076310398e-01 0.0000000000000000e+00  0.0000000000000000e+00 1.8999429765949424e-01 0.0000000000000000e+00  1.1188696774387141e-02 1.9291541795679731e-01 0.0000000000000000e+00  2.8520277968933715e-02 1.9942518411400476e-01 0.0000000000000000e+00  5.1429476924559868e-02 2.0882419176933076e-01 0.0000000000000000e+00  7.9118167919066590e-02 2.2041754009314815e-01 0.0000000000000000e+00  1.1071466671701251e-01 2.3364195245081057e-01 0.0000000000000000e+00  1.4538410666261528e-01 2.4809426692873215e-01 0.0000000000000000e+00  1.8238632072747271e-01 2.6352495098577500e-01 0.0000000000000000e+00  2.2109288163777130e-01 2.7982203705077319e-01 0.0000000000000000e+00  2.6097974953634262e-01 2.9699732094308384e-01 0.0000000000000000e+00  3.0160970526333986e-01 3.1517915471538777e-01 0.0000000000000000e+00  3.4261437323838151e-01 3.3461205754130868e-01 0.0000000000000000e+00  3.8368205232162489e-01 3.5566147401769616e-01 0.0000000000000000e+00  4.2455544282383600e-01 3.7882109648376600e-01 0.0000000000000000e+00  4.6504223992450733e-01 4.0471991644504229e-01 0.0000000000000000e+00  5.0504142823222986e-01 4.3412991501536713e-01 0.0000000000000000e+00  5.4459637262357241e-01 4.6800208067247495e-01 0.0000000000000000e+00  0.0000000000000000e+00 1.9942857708796852e-01 0.0000000000000000e+00  1.0515263050344588e-02 2.0252675096077535e-01 0.0000000000000000e+00  2.6489823335535893e-02 2.0964993806155052e-01 0.0000000000000000e+00  4.7455093233252678e-02 2.2017852888636957e-01 0.0000000000000000e+00  7.2770505557568907e-02 2.3340071388822634e-01 0.0000000000000000e+00  1.0173015968253449e-01 2.4867403104330921e-01 0.0000000000000000e+00  1.3363890051943297e-01 2.6548728683377948e-01 0.0000000000000000e+00  1.6785712110062856e-01 2.8347972471838195e-01 0.0000000000000000e+00  2.0381955340044344e-01 3.0243995679048152e-01 0.0000000000000000e+00  2.4103661730517562e-01 3.2229711531598376e-01 0.0000000000000000e+00  2.7908702999863838e-01 3.4311090943674116e-01 0.0000000000000000e+00  3.1760876480087324e-01 3.6506319236869361e-01 0.0000000000000000e+00  3.5629349325999354e-01 3.8845090964021223e-01 0.0000000000000000e+00  3.9488797737335052e-01 4.1367850057943178e-01 0.0000000000000000e+00  4.3320448682250273e-01 4.4124697124411022e-01 0.0000000000000000e+00  4.7114155600266322e-01 4.7173952029330002e-01 0.0000000000000000e+00  5.0872314928969187e-01 5.0582348071453032e-01 0.0000000000000000e+00  0.0000000000000000e+00 2.0755784474496400e-01 0.0000000000000000e+00  9.4336092669641287e-03 2.1092610408349247e-01 0.0000000000000000e+00  2.3785258606620119e-02 2.1881539453669291e-01 0.0000000000000000e+00  4.2649709804325323e-02 2.3063042796739891e-01 0.0000000000000000e+00  6.5503958258432776e-02 2.4560548707189184e-01 0.0000000000000000e+00  9.1777250429777468e-02 2.6300337206386870e-01 0.0000000000000000e+00  1.2089827863683933e-01 2.8220405252095088e-01 0.0000000000000000e+00  1.5232473915692574e-01 3.0274088564005464e-01 0.0000000000000000e+00  1.8555875606183947e-01 3.2430843565752604e-01 0.0000000000000000e+00  2.2015215296980747e-01 3.4675586589992918e-01 0.0000000000000000e+00  2.5570598747762630e-01 3.7007407040784246e-01 0.0000000000000000e+00  2.9186854024273606e-01 3.9438049880227755e-01 0.0000000000000000e+00  3.2833522047172892e-01 4.1990261430411224e-01 0.0000000000000000e+00  3.6485283106785921e-01 4.4695884216004772e-01 0.0000000000000000e+00  4.0122938496149696e-01 4.7593475121464962e-01 0.0000000000000000e+00  4.3734967593816981e-01 5.0725383172762883e-01 0.0000000000000000e+00  4.7320211654978728e-01 5.4135573412175475e-01 0.0000000000000000e+00  0.0000000000000000e+00 2.1445745907086597e-01 0.0000000000000000e+00  7.8884715724110016e-03 2.1820582837373448e-01 0.0000000000000000e+00  2.0266697745026742e-02 2.2705752902026444e-01 0.0000000000000000e+00  3.6784290383587430e-02 2.4037642328524941e-01 0.0000000000000000e+00  5.7020432912693507e-02 2.5729103032806000e-01 0.0000000000000000e+00  8.0523177905836726e-02 2.7694210254692214e-01 0.0000000000000000e+00  1.0683150914348044e-01 2.9859342615981976e-01 0.0000000000000000e+00  1.3549105855448940e-01 3.2167627499259566e-01 0.0000000000000000e+00  1.6606566114760529e-01 3.4579891836377924e-01 0.0000000000000000e+00  1.9814514520092325e-01 3.7073819709206624e-01 0.0000000000000000e+00  2.3135029912316829e-01 3.9642241696449892e-01 0.0000000000000000e+00  2.6533666198304423e-01 4.2291003076355516e-01 0.0000000000000000e+00  2.9979898387486636e-01 4.5036553121203549e-01 0.0000000000000000e+00  3.3447780213134298e-01 4.7903201112388472e-01 0.0000000000000000e+00  3.6916860219071329e-01 5.0919878200754098e-01 0.0000000000000000e+00  4.0373292448976311e-01 5.4116327497713068e-01 0.0000000000000000e+00  4.3811449435961486e-01 5.7519473360642626e-01 0.0000000000000000e+00  0.0000000000000000e+00 2.2016637740877271e-01 0.0000000000000000e+00  5.7666548827361129e-03 2.2443453986017881e-01 0.0000000000000000e+00  1.5696600534092834e-02 2.3450154130218970e-01 0.0000000000000000e+00  2.9509406871260361e-02 2.4960397305284193e-01 0.0000000000000000e+00  4.6891262331199939e-02 2.6869754087229691e-01 0.0000000000000000e+00  6.7502210677440902e-02 2.9076834534357604e-01 0.0000000000000000e+00  9.0976890369707589e-02 3.1495670670928433e-01 0.0000000000000000e+00  1.1693137864560166e-01 3.4059790995684763e-01 0.0000000000000000e+00  1.4497433908611471e-01 3.6722503055043959e-01 0.0000000000000000e+00  1.7471887452164669e-01 3.9455427970548229e-01 0.0000000000000000e+00  2.0579313346598074e-01 4.2246216388648533e-01 0.0000000000000000e+00  2.3784944223554777e-01 4.5095842553924032e-01 0.0000000000000000e+00  2.7057267749597208e-01 4.8015600091751537e-01 0.0000000000000000e+00  3.0368867773196984e-01 5.1023775209442113e-01 0.0000000000000000e+00  3.3697276700304141e-01 5.4141903833314353e-01 0.0000000000000000e+00  3.7025727053959939e-01 5.7390571054659822e-01 0.0000000000000000e+00  4.0343897442930737e-01 6.0785178801201789e-01 0.0000000000000000e+00  0.0000000000000000e+00 2.2472746639435887e-01 0.0000000000000000e+00  2.8538866960032324e-03 2.2969677347023851e-01 0.0000000000000000e+00  9.6650239355706141e-03 2.4130383774664940e-01 0.0000000000000000e+00  2.0267472886129779e-02 2.5852964162817932e-01 0.0000000000000000e+00  3.4473956817613838e-02 2.8007634820843891e-01 0.0000000000000000e+00  5.2048430684026259e-02 3.0474763571093932e-01 0.0000000000000000e+00  7.2695472710224890e-02 3.3156142065382593e-01 0.0000000000000000e+00  9.6069121325768211e-02 3.5976954937785521e-01 0.0000000000000000e+00  1.2179085363590347e-01 3.8884522470730271e-01 0.0000000000000000e+00  1.4946905967633478e-01 4.1845865800129534e-01 0.0000000000000000e+00  1.7871640186982313e-01 4.4844781462374605e-01 0.0000000000000000e+00  2.0916411939445656e-01 4.7878638431583947e-01 0.0000000000000000e+00  2.4047364558983175e-01 5.0954936418893082e-01 0.0000000000000000e+00  2.7234620672977361e-01 5.4087604032328440e-01 0.0000000000000000e+00  3.0453050879812227e-01 5.7293015731221197e-01 0.0000000000000000e+00  3.3682736856399698e-01 6.0585776874490360e-01 0.0000000000000000e+00  3.6909111182980564e-01 6.3974626459206407e-01 0.0000000000000000e+00  0.0000000000000000e+00 2.2826819892880565e-01 0.0000000000000000e+00  -1.2620285327016784e-03 2.3415593599650253e-01 0.0000000000000000e+00  1.4438377473226743e-03 2.4770841344156147e-01 0.0000000000000000e+00  8.1428176676516181e-03 2.6743641760697257e-01 0.0000000000000000e+00  1.8785155528527723e-02 2.9170675559173870e-01 0.0000000000000000e+00  3.3202051322872184e-02 3.1913530341146801e-01 0.0000000000000000e+00  5.1111151817374412e-02 3.4863571146314937e-01 0.0000000000000000e+00  7.2145416016196451e-02 3.7939753109052304e-01 0.0000000000000000e+00  9.5886551777409373e-02 4.1085253410456063e-01 0.0000000000000000e+00  1.2189509938376768e-01 4.4264009431962897e-01 0.0000000000000000e+00  1.4973482212043340e-01 4.7457253812501349e-01 0.0000000000000000e+00  1.7899139327766403e-01 5.0659965194800138e-01 0.0000000000000000e+00  2.0928616459006602e-01 5.3877153167725389e-01 0.0000000000000000e+00  2.4028588334983125e-01 5.7119943341351709e-01 0.0000000000000000e+00  2.7170884570435699e-01 6.0401524829005082e-01 0.0000000000000000e+00  3.0332686930680952e-01 6.3733164799899789e-01 0.0000000000000000e+00  3.3496255208826548e-01 6.7120708335121404e-01 0.0000000000000000e+00  0.0000000000000000e+00 2.3121957510332736e-01 0.0000000000000000e+00  -7.4606681665962222e-03 2.3816383412366557e-01 0.0000000000000000e+00  -1.0347100360215359e-02 2.5412027172892626e-01 0.0000000000000000e+00  -8.4272970140162676e-03 2.7669620135424688e-01 0.0000000000000000e+00  -1.7114730282508403e-03 3.0388248085954689e-01 0.0000000000000000e+00  9.5699649763044282e-03 3.3414643817894674e-01 0.0000000000000000e+00  2.5029061953264473e-02 3.6633466350828486e-01 0.0000000000000000e+00  4.4180596482951202e-02 3.9959975755533195e-01 0.0000000000000000e+00  6.6490769883555373e-02 4.3334859761403349e-01 0.0000000000000000e+00  9.1414815102035571e-02 4.6720110306530210e-01 0.0000000000000000e+00  1.1842544366389848e-01 5.0095285910357035e-01 0.0000000000000000e+00  1.4703373397676545e-01 5.3453814256462218e-01 0.0000000000000000e+00  1.7680354274988985e-01 5.6799166431513193e-01 0.0000000000000000e+00  2.0736006022021519e-01 6.0140857384400925e-01 0.0000000000000000e+00  2.3839288398684810e-01 6.3490395300176405e-01 0.0000000000000000e+00  2.6965442471050310e-01 6.6857655145789163e-01 0.0000000000000000e+00  3.0095442482589635e-01 7.0248442163858438e-01 0.0000000000000000e+00  0.0000000000000000e+00 2.3509384226703153e-01 0.0000000000000000e+00  -1.8116617001585598e-02 2.4241091842020770e-01 0.0000000000000000e+00  -2.8651371115052445e-02 2.6114052283512573e-01 0.0000000000000000e+00  -3.2285191896840738e-02 2.8670519373372022e-01 0.0000000000000000e+00  -2.9510173861760948e-02 3.1681161216265896e-01 0.0000000000000000e+00  -2.0925189452174059e-02 3.4985683430167663e-01 0.0000000000000000e+00  -7.2147257942850795e-03 3.8465530518913621e-01 0.0000000000000000e+00  1.0891506668202348e-02 4.2033729423986088e-01 0.0000000000000000e+00  3.2655577376238733e-02 4.5629088278921320e-01 0.0000000000000000e+00  5.7363176393598066e-02 4.9211911939239206e-01 0.0000000000000000e+00  8.4349952327372080e-02 5.2760216377842084e-01 0.0000000000000000e+00  1.1302208469158014e-01 5.6266015810214931e-01 0.000000000000000